TITLE = "Plate"
VARIABLES = "x[m],y[m],w[m],t_x[rad],t_y[rad],e_x,e_y,e_xy,Q_x[N],Q_y[N],M_x[Nm],M_y[Nm],M_xy[Nm],s_x[MPa],s_y[MPa],s_xy[MPa]"
ZONE T="Plate", I=0031 J=0061
0.000000000000          0.000000000000          0.000000000000          0.000000000000          0.000000000000          -0.000000000000         0.000000000000          -0.000010064986         -0.013276639661         -0.013276614566         -0.000000000000         -0.000000000000         -1.103616889515         -0.000000000000         -0.000000000000         -0.264868053483         
0.016666666667          0.000000000000          0.000000000000          0.000033437339          0.000000000000          -0.000000000000         -0.000000000676         -0.000009961035         -0.004912900275         3.562244989799          -0.000073021518         -0.000221277328         -1.092218735678         -0.000017525164         -0.000053106559         -0.262132496563         
0.033333333333          0.000000000000          0.000000000000          0.000066217642          0.000000000000          -0.000000000000         -0.000000000500         -0.000009684374         0.003043593172          6.177173540819          -0.000054041903         -0.000163763343         -1.061883073780         -0.000012970057         -0.000039303202         -0.254851937707         
0.050000000000          0.000000000000          0.000000000000          0.000097862951          0.000000000000          -0.000000000000         -0.000000000366         -0.000009285349         0.002042453229          8.292072075202          -0.000039541993         -0.000119824222         -1.018130367887         -0.000009490078         -0.000028757813         -0.244351288293         
0.066666666667          0.000000000000          0.000000000000          0.000128010106          0.000000000000          -0.000000000000         -0.000000000292         -0.000008788429         0.001198122545          10.057953861148         -0.000031574918         -0.000095681568         -0.963643485814         -0.000007577980         -0.000022963576         -0.231274436595         
0.083333333333          0.000000000000          0.000000000000          0.000156361122          0.000000000000          -0.000000000000         -0.000000000244         -0.000008209897         0.000796505273          11.555449622713         -0.000026362645         -0.000079886804         -0.900207986816         -0.000006327035         -0.000019172833         -0.216049916836         
0.100000000000          0.000000000000          0.000000000000          0.000182665631          0.000000000000          -0.000000000000         -0.000000000211         -0.000007562350         0.000552371229          12.833551763229         -0.000022813360         -0.000069131392         -0.829205053854         -0.000005475206         -0.000016591534         -0.199009212925         
0.116666666667          0.000000000000          0.000000000000          0.000206711331          0.000000000000          -0.000000000000         -0.000000000188         -0.000006856163         0.000397587019          13.924545546081         -0.000020286562         -0.000061474430         -0.751772222393         -0.000004868775         -0.000014753863         -0.180425333374         
0.133333333333          0.000000000000          0.000000000000          0.000228317889          0.000000000000          -0.000000000000         -0.000000000171         -0.000006100226         0.000292593404          14.850971249536         -0.000018439902         -0.000055878492         -0.668884388450         -0.000004425577         -0.000013410838         -0.160532253228         
0.150000000000          0.000000000000          0.000000000000          0.000247332784          0.000000000000          -0.000000000000         -0.000000000158         -0.000005302386         0.000217814665          15.629138045287         -0.000017068034         -0.000051721316         -0.581401944013         -0.000004096328         -0.000012413116         -0.139536466563         
0.166666666667          0.000000000000          0.000000000000          0.000263628324          0.000000000000          -0.000000000000         -0.000000000149         -0.000004469729         0.000162015749          16.271098569894         -0.000016043941         -0.000048618003         -0.490101861854         -0.000003850546         -0.000011668321         -0.117624446845         
0.183333333333          0.000000000000          0.000000000000          0.000277099451          0.000000000000          -0.000000000000         -0.000000000142         -0.000003608777         0.000118520086          16.785829736853         -0.000015285861         -0.000046320791         -0.395699265035         -0.000003668607         -0.000011116990         -0.094967823608         
0.200000000000          0.000000000000          0.000000000000          0.000287662117          0.000000000000          -0.000000000000         -0.000000000136         -0.000002725633         0.000083080322          17.179972768801         -0.000014740220         -0.000044667334         -0.298863293301         -0.000003537653         -0.000010720160         -0.071727190392         
0.216666666667          0.000000000000          0.000000000000          0.000295252076          0.000000000000          -0.000000000000         -0.000000000133         -0.000001826092         0.000052829835          17.458309211179         -0.000014371978         -0.000043551447         -0.200229404033         -0.000003449275         -0.000010452347         -0.048055056968         
0.233333333333          0.000000000000          0.000000000000          0.000299824017          0.000000000000          -0.000000000000         -0.000000000131         -0.000000915734         0.000025686170          17.624068097927         -0.000014159092         -0.000042906339         -0.100409397014         -0.000003398182         -0.000010297521         -0.024098255283         
0.250000000000          0.000000000000          0.000000000000          0.000301350981          0.000000000000          -0.000000000000         -0.000000000130         0.000000000000          -0.000000000274         17.679117240261         -0.000014089430         -0.000042695242         0.000000000002          -0.000003381463         -0.000010246858         0.000000000001          
0.266666666667          0.000000000000          0.000000000000          0.000299824017          0.000000000000          -0.000000000000         -0.000000000131         0.000000915734          -0.000025685752         17.624068098368         -0.000014159095         -0.000042906348         0.100409397015          -0.000003398183         -0.000010297524         0.024098255284          
0.283333333333          0.000000000000          0.000000000000          0.000295252076          0.000000000000          -0.000000000000         -0.000000000133         0.000001826092          -0.000052829537         17.458309210464         -0.000014371973         -0.000043551433         0.200229404035          -0.000003449274         -0.000010452344         0.048055056968          
0.300000000000          0.000000000000          0.000000000000          0.000287662117          0.000000000000          -0.000000000000         -0.000000000136         0.000002725633          -0.000083080706         17.179972768451         -0.000014740220         -0.000044667333         0.298863293300          -0.000003537653         -0.000010720160         0.071727190392          
0.316666666667          0.000000000000          0.000000000000          0.000277099451          0.000000000000          -0.000000000000         -0.000000000142         0.000003608777          -0.000118519943         16.785829737262         -0.000015285861         -0.000046320790         0.395699265033          -0.000003668607         -0.000011116990         0.094967823608          
0.333333333333          0.000000000000          0.000000000000          0.000263628324          0.000000000000          -0.000000000000         -0.000000000149         0.000004469729          -0.000162015474         16.271098569721         -0.000016043939         -0.000048617998         0.490101861853          -0.000003850545         -0.000011668319         0.117624446845          
0.350000000000          0.000000000000          0.000000000000          0.000247332784          0.000000000000          -0.000000000000         -0.000000000158         0.000005302386          -0.000217815009         15.629138044775         -0.000017068031         -0.000051721306         0.581401944013          -0.000004096327         -0.000012413113         0.139536466563          
0.366666666667          0.000000000000          0.000000000000          0.000228317889          0.000000000000          -0.000000000000         -0.000000000171         0.000006100226          -0.000292593852         14.850971249878         -0.000018439904         -0.000055878498         0.668884388451          -0.000004425577         -0.000013410840         0.160532253228          
0.383333333333          0.000000000000          0.000000000000          0.000206711331          0.000000000000          -0.000000000000         -0.000000000188         0.000006856163          -0.000397586875         13.924545545945         -0.000020286563         -0.000061474435         0.751772222392          -0.000004868775         -0.000014753864         0.180425333374          
0.400000000000          0.000000000000          0.000000000000          0.000182665631          0.000000000000          -0.000000000000         -0.000000000211         0.000007562350          -0.000552371073         12.833551762771         -0.000022813360         -0.000069131394         0.829205053852          -0.000005475206         -0.000016591535         0.199009212924          
0.416666666667          0.000000000000          0.000000000000          0.000156361122          0.000000000000          -0.000000000000         -0.000000000244         0.000008209897          -0.000796505165         11.555449623359         -0.000026362645         -0.000079886804         0.900207986814          -0.000006327035         -0.000019172833         0.216049916835          
0.433333333333          0.000000000000          0.000000000000          0.000128010106          0.000000000000          0.000000000000          -0.000000000292         0.000008788429          -0.001198122777         10.057953861130         -0.000031574917         -0.000095681566         0.963643485815          -0.000007577980         -0.000022963576         0.231274436596          
0.450000000000          0.000000000000          0.000000000000          0.000097862951          0.000000000000          0.000000000000          -0.000000000366         0.000009285349          -0.002042453070         8.292072076814          -0.000039541996         -0.000119824230         1.018130367888          -0.000009490079         -0.000028757815         0.244351288293          
0.466666666667          0.000000000000          0.000000000000          0.000066217642          0.000000000000          0.000000000000          -0.000000000500         0.000009684374          -0.003043593026         6.177173540181          -0.000054041901         -0.000163763335         1.061883073782          -0.000012970056         -0.000039303200         0.254851937708          
0.483333333333          0.000000000000          0.000000000000          0.000033437339          0.000000000000          0.000000000000          -0.000000000676         0.000009961035          0.004912900057          3.562244990000          -0.000073021519         -0.000221277331         1.092218735680          -0.000017525165         -0.000053106559         0.262132496563          
0.500000000000          0.000000000000          0.000000000000          0.000000000000          0.000000000000          0.000000000000          0.000000000000          0.000010064986          0.013276639831          -0.013276614335         0.000000000000          0.000000000000          1.103616889515          0.000000000000          0.000000000000          0.264868053484          
0.000000000000          0.016666666667          0.000000000000          0.000000000000          0.000033464512          -0.000000000676         0.000000000000          -0.000009985491         3.562245506132          -0.004912308473         -0.000221276909         -0.000073021380         -1.094900316862         -0.000053106458         -0.000017525131         -0.262776076047         
0.016666666667          0.016666666667          0.000000555865          0.000033178761          0.000033124414          0.000000102464          0.000000078008          -0.000009888868         3.090372645686          3.092222786211          0.041963474143          0.036600328083          -1.084305717840         0.010071233794          0.008784078740          -0.260233372282         
0.033333333333          0.016666666667          0.000001100993          0.000065741763          0.000032214937          0.000000170777          0.000000142945          -0.000009625188         2.365799157055          5.574364201146          0.071337128353          0.065233471630          -1.055393401255         0.017120910805          0.015656033191          -0.253294416301         
0.050000000000          0.016666666667          0.000001627415          0.000097207556          0.000030895871          0.000000224882          0.000000196693          -0.000009235961         1.939059087886          7.624948214313          0.094851518552          0.088669771200          -1.012715008883         0.022764364452          0.021280745088          -0.243051602132         
0.066666666667          0.016666666667          0.000002129024          0.000127203167          0.000029247861          0.000000269484          0.000000242121          -0.000008746466         1.631067849915          9.354673225290          0.114357280902          0.108356487694          -0.959042275856         0.027445747417          0.026005557047          -0.230170146206         
0.083333333333          0.016666666667          0.000002600821          0.000155424728          0.000027326190          0.000000306997          0.000000280941          -0.000008173949         1.387509940571          10.829545001037         0.130828586854          0.125114465986          -0.896266293063         0.031398860845          0.030027471837          -0.215103910335         
0.100000000000          0.016666666667          0.000003038612          0.000181618163          0.000025173421          0.000000338821          0.000000314255          -0.000007531502         1.184393606061          12.092391885226         0.144843349550          0.139455918614          -0.825822556897         0.034762403892          0.033469420467          -0.198197413655         
0.116666666667          0.016666666667          0.000003438844          0.000205568651          0.000022824463          0.000000365858          0.000000342813          -0.000006829782         1.008621683686          13.172593233265         0.156777524009          0.151723770291          -0.748879557694         0.037626605762          0.036413704870          -0.179731093847         
0.133333333333          0.016666666667          0.000003798502          0.000227094083          0.000020309158          0.000000388728          0.000000367148          -0.000006077858         0.852242908052          14.091140117353         0.166891559846          0.162159183334          -0.666431765658         0.040053974363          0.038918204000          -0.159943623758         
0.150000000000          0.016666666667          0.000004115037          0.000246040639          0.000017653798          0.000000407876          0.000000387648          -0.000005283697         0.710029968927          14.863449360730         0.175373141638          0.170937272837          -0.579352758601         0.042089553993          0.041024945481          -0.139044662064         
0.166666666667          0.016666666667          0.000004386316          0.000262279666          0.000014882102          0.000000423630          0.000000404601          -0.000004454471         0.578323959833          15.501028753284         0.182360678774          0.178187631958          -0.488428881455         0.043766562906          0.042765031670          -0.117222931549         
0.183333333333          0.016666666667          0.000004610582          0.000275705393          0.000012015881          0.000000436234          0.000000418220          -0.000003596766         0.454422740141          16.012509092781         0.187957170862          0.184006807352          -0.394382239988         0.045109721007          0.044161633765          -0.094651737597         
0.200000000000          0.016666666667          0.000004786433          0.000286233241          0.000009075534          0.000000445868          0.000000428665          -0.000002716733         0.336230478423          16.404306721541         0.192238805982          0.188466199955          -0.297887412953         0.046137313436          0.045231887989          -0.071492979109         
0.216666666667          0.016666666667          0.000004912795          0.000293798583          0.000006080423          0.000000452663          0.000000436050          -0.000001820209         0.222042116219          16.681057046186         0.195260449113          0.191617185638          -0.199584287380         0.046862507787          0.045988124553          -0.047900228971         
0.233333333333          0.016666666667          0.000004988913          0.000298355853          0.000003049187          0.000000456706          0.000000440451          -0.000000912807         0.110401411182          16.845897650612         0.197059163441          0.193494437204          -0.100088443296         0.047294199226          0.046438664929          -0.024021226391         
0.250000000000          0.016666666667          0.000005014335          0.000299877943          -0.000000000000         0.000000458048          0.000000441913          -0.000000000000         0.000000000443          16.900646049427         0.197656394305          0.194118000840          -0.000000000001         0.047437534633          0.046588320202          -0.000000000000         
0.266666666667          0.016666666667          0.000004988913          0.000298355853          -0.000003049187         0.000000456706          0.000000440451          0.000000912807          -0.110401410146         16.845897650430         0.197059163438          0.193494437205          0.100088443300          0.047294199225          0.046438664929          0.024021226392          
0.283333333333          0.016666666667          0.000004912795          0.000293798583          -0.000006080423         0.000000452663          0.000000436050          0.000001820209          -0.222042115210         16.681057046033         0.195260449113          0.191617185633          0.199584287377          0.046862507787          0.045988124552          0.047900228971          
0.300000000000          0.016666666667          0.000004786433          0.000286233241          -0.000009075534         0.000000445868          0.000000428665          0.000002716733          -0.336230477947         16.404306721062         0.192238805982          0.188466199955          0.297887412955          0.046137313436          0.045231887989          0.071492979109          
0.316666666667          0.016666666667          0.000004610582          0.000275705393          -0.000012015881         0.000000436234          0.000000418220          0.000003596766          -0.454422739663         16.012509093016         0.187957170859          0.184006807355          0.394382239986          0.045109721006          0.044161633765          0.094651737597          
0.333333333333          0.016666666667          0.000004386316          0.000262279666          -0.000014882102         0.000000423630          0.000000404601          0.000004454471          -0.578323959112         15.501028753221         0.182360678775          0.178187631959          0.488428881452          0.043766562906          0.042765031670          0.117222931548          
0.350000000000          0.016666666667          0.000004115037          0.000246040639          -0.000017653798         0.000000407876          0.000000387648          0.000005283697          -0.710029968567         14.863449360601         0.175373141641          0.170937272835          0.579352758599          0.042089553994          0.041024945481          0.139044662064          
0.366666666667          0.016666666667          0.000003798502          0.000227094083          -0.000020309158         0.000000388728          0.000000367148          0.000006077858          -0.852242907896         14.091140117521         0.166891559843          0.162159183333          0.666431765655          0.040053974362          0.038918204000          0.159943623757          
0.383333333333          0.016666666667          0.000003438844          0.000205568651          -0.000022824463         0.000000365858          0.000000342813          0.000006829782          -1.008621683342         13.172593233145         0.156777524008          0.151723770288          0.748879557689          0.037626605762          0.036413704869          0.179731093845          
0.400000000000          0.016666666667          0.000003038612          0.000181618163          -0.000025173421         0.000000338821          0.000000314255          0.000007531502          -1.184393605647         12.092391884785         0.144843349551          0.139455918612          0.825822556898          0.034762403892          0.033469420467          0.198197413656          
0.416666666667          0.016666666667          0.000002600821          0.000155424728          -0.000027326190         0.000000306997          0.000000280941          0.000008173949          -1.387509940307         10.829545001838         0.130828586856          0.125114465988          0.896266293062          0.031398860845          0.030027471837          0.215103910335          
0.433333333333          0.016666666667          0.000002129024          0.000127203167          -0.000029247861         0.000000269484          0.000000242121          0.000008746466          -1.631067849775         9.354673225216          0.114357280906          0.108356487698          0.959042275857          0.027445747417          0.026005557048          0.230170146206          
0.450000000000          0.016666666667          0.000001627415          0.000097207556          -0.000030895871         0.000000224882          0.000000196693          0.000009235961          -1.939059087840         7.624948215517          0.094851518553          0.088669771205          1.012715008885          0.022764364453          0.021280745089          0.243051602132          
0.466666666667          0.016666666667          0.000001100993          0.000065741763          -0.000032214937         0.000000170777          0.000000142945          0.000009625188          -2.365799156979         5.574364200776          0.071337128353          0.065233471631          1.055393401256          0.017120910805          0.015656033191          0.253294416301          
0.483333333333          0.016666666667          0.000000555865          0.000033178761          -0.000033124414         0.000000102464          0.000000078008          0.000009888868          -3.090372645355         3.092222786436          0.041963474140          0.036600328083          1.084305717841          0.010071233794          0.008784078740          0.260233372282          
0.500000000000          0.016666666667          0.000000000000          0.000000000000          -0.000033464512         -0.000000000676         0.000000000000          0.000009985491          -3.562245505620         -0.004912309293         -0.000221276906         -0.000073021379         1.094900316859          -0.000053106457         -0.000017525131         0.262776076046          
0.000000000000          0.033333333333          0.000000000000          0.000000000000          0.000066434819          -0.000000000500         0.000000000000          -0.000009782010         6.180875873272          0.003045869823          -0.000163743616         -0.000054035393         -1.072588767291         -0.000039298468         -0.000012968494         -0.257421304150         
0.016666666667          0.033333333333          0.000001103707          0.000032513216          0.000065795900          0.000000191857          0.000000122054          -0.000009698367         5.574365219718          2.373201370335          0.075980180587          0.060672515108          -1.063417442735         0.018235243341          0.014561403626          -0.255220186256         
0.033333333333          0.033333333333          0.000002187063          0.000064484432          0.000064050707          0.000000331981          0.000000234535          -0.000009460384         4.535152598882          4.546255397455          0.133993547485          0.112623770665          -1.037322833470         0.032158451396          0.027029704960          -0.248957480033         
0.050000000000          0.033333333333          0.000003234093          0.000095441587          0.000061470508          0.000000442186          0.000000333254          -0.000009094543         3.780823804175          6.433967170046          0.180727838957          0.156839207293          -0.997208609719         0.043374681350          0.037641409750          -0.239330066333         
0.066666666667          0.033333333333          0.000004232357          0.000124999823          0.000058220742          0.000000532745          0.000000418973          -0.000008624671         3.204314872545          8.066603332095          0.219627673866          0.194677543987          -0.945687639530         0.052710641728          0.046722610557          -0.226965033487         
0.083333333333          0.033333333333          0.000005171698          0.000152844055          0.000054415843          0.000000608711          0.000000493317          -0.000008068810         2.737453859856          9.478557142261          0.252521995662          0.227216424104          -0.884737965872         0.060605278959          0.054531941785          -0.212337111809         
0.100000000000          0.033333333333          0.000006043619          0.000178711780          0.000050143345          0.000000673026          0.000000557697          -0.000007440844         2.342867132899          10.698132342108         0.280527025144          0.255235425600          -0.815881984941         0.067326486035          0.061256502144          -0.195811676386         
0.116666666667          0.033333333333          0.000006840939          0.000202381982          0.000045474604          0.000000727586          0.000000613213          -0.000006752002         1.998629340035          11.747332044738         0.304381435826          0.279299588359          -0.740351140973         0.073051544598          0.067031901206          -0.177684273834         
0.133333333333          0.033333333333          0.000007557574          0.000223667946          0.000040470339          0.000000773686          0.000000660711          -0.000006011763         1.690777457325          12.643055184936         0.324600833243          0.299825513683          -0.659184507714         0.077904199978          0.071958123284          -0.158204281851         
0.150000000000          0.033333333333          0.000008188382          0.000242412398          0.000035183858          0.000000812252          0.000000700837          -0.000005228386         1.409835906652          13.398296577441         0.341558220723          0.317125061810          -0.573287906506         0.081973972974          0.076110014834          -0.137589097561         
0.166666666667          0.033333333333          0.000008729067          0.000258484070          0.000029663122          0.000000843964          0.000000734088          -0.000004409262         1.149024041504          14.023057320116         0.355529270321          0.331433793712          -0.483471702818         0.085327024877          0.079544110491          -0.116033208676         
0.183333333333          0.033333333333          0.000009176095          0.000271775213          0.000023952153          0.000000869323          0.000000760842          -0.000003561146         0.903253865721          14.524998097813         0.366719390927          0.342929706011          -0.390476500873         0.088012653822          0.082303129443          -0.093714360209         
0.200000000000          0.033333333333          0.000009526643          0.000282199773          0.000018092061          0.000000888701          0.000000781382          -0.000002690324         0.668532098085          14.909898792229         0.375280641037          0.351745751726          -0.294991639773         0.090067353849          0.084418980414          -0.070797993545         
0.216666666667          0.033333333333          0.000009778552          0.000289692055          0.000012121831          0.000000902365          0.000000795915          -0.000001802743         0.441581300599          15.181978315990         0.381322575428          0.357978263650          -0.197669243002         0.091517418103          0.085914783276          -0.047440618320         
0.233333333333          0.033333333333          0.000009930300          0.000294205769          0.000006078961          0.000000910494          0.000000804580          -0.000000904115         0.219584451487          15.344112357977         0.384919224614          0.361692562495          -0.099135467123         0.092380613907          0.086806214999          -0.023792512109         